                         Program Version 4.0.0.2 - RELEASE -
|  1> # input to generate an atomic fitting density for Mo
|  2> # this file is use internally by ORCA
|  3> #
|  4> # atomic ground state (S=5): 1s2 2s2 2p6 3s2 3p6 4s2 3d10 4p6 5s2 4d4
|  5> #
|  6> ! RHF AllowRHF def2-SVP def2/J  NoMulliken NoLoewdin NoMayer NoPrintMOs
|  7>
|  8> %output print[p_atomdensfit] 2 end
|  9>
| 10> %scf
| 11>   guess hcore
| 12>   maxiter 1000
| 13>   maxdisk 500000
| 14>   SCFMode Conventional
| 15>   lshift 0.600000
| 16>   hftyp rohf
| 17>   rohf_case sahf
| 18>   rohf_numop   2
| 19>   rohf_norb[1] 5
| 20>   rohf_nel[1]  4
| 21> end
| 22>
| 23> %basis
| 24>   NewECP 42
| 25>     N_core 28
| 26>     lmax f
| 27>     s 4
| 28>       1       9.7145938000    180.1031085000  2
| 29>       2       4.6805004000     24.9972279000  2
| 30>       3       9.4500000000     24.8051771000  2
| 31>       4       4.7200000000      4.1537815000  2
| 32>     p 4
| 33>       1       8.1421366000    123.7727523000  2
| 34>       2       4.6259863000     19.5302280000  2
| 35>       3       9.4500000000     24.8051771000  2
| 36>       4       4.7200000000      4.1537815000  2
| 37>     d 4
| 38>       1       6.6184148000     48.3750223000  2
| 39>       2       3.2487516000      8.8920527000  2
| 40>       3       9.4500000000     24.8051771000  2
| 41>       4       4.7200000000      4.1537815000  2
| 42>     f 2
| 43>       1       9.4500000000    -24.8051771000  2
| 44>       2       4.7200000000     -4.1537815000  2
| 45>   end
| 46>   NewGTO 42
| 47>     s 2
| 48>      1      14.0000000000     -2.0770233737
| 49>      2      12.5000000000      3.0616178399
| 50>     s 1
| 51>      1       4.0921501803      1.0000000000
| 52>     s 1
| 53>      1       0.9705360259      1.0000000000
| 54>     s 1
| 55>      1       0.4421762017      1.0000000000
| 56>     s 1
| 57>      1       0.0929150243      1.0000000000
| 58>     s 1
| 59>      1       0.0350163144      1.0000000000
| 60>     p 4
| 61>      1       8.8931117915      0.0830010811
| 62>      2       5.4689112270     -0.2792276027
| 63>      3       1.3548473007      0.5492197283
| 64>      4       0.6549486746      0.5789213489
| 65>     p 1
| 66>      1       0.3042819747      1.0000000000
| 67>     p 1
| 68>      1       0.1000000000      1.0000000000
| 69>     p 1
| 70>      1       0.0330000000      1.0000000000
| 71>     d 3
| 72>      1       5.0044445497     -0.0359172347
| 73>      2       1.7736823324      0.3487122377
| 74>      3       0.7695059170      0.7275979769
| 75>     d 1
| 76>      1       0.3153087894      1.0000000000
| 77>     d 1
| 78>      1       0.1175437439      1.0000000000
| 79>   end
| 80>   NewAuxGTO 42
| 81>     S 1
| 82>      1 1310.72 1.0
| 83>     S 1
| 84>      1  655.36 1.0
| 85>     S 1
| 86>      1  327.68 1.0
| 87>     S 1
| 88>      1  163.84 1.0
| 89>     S 1
| 90>      1   81.82 1.0
| 91>     S 1
| 92>      1   40.96 1.0
| 93>     S 1
| 94>      1   20.48 1.0
| 95>     S 1
| 96>      1   10.24 1.0
| 97>     S 1
| 98>      1    5.12 1.0
| 99>     S 1
|100>      1    2.56 1.0
|101>     S 1
|102>      1    1.28 1.0
|103>     S 1
|104>      1    0.64 1.0
|105>     S 1
|106>      1    0.32 1.0
|107>     S 1
|108>      1    0.16 1.0
|109>     S 1
|110>      1    0.08 1.0
|111>     S 1
|112>      1    0.04 1.0
|113>     S 1
|114>      1    0.02 1.0
|115>     S 1
|116>      1    0.01 1.0
|117>   end
|118> end
|119>
|120> * xyz 0 5
|121> 42  0.0 0.0 0.0
|122> *
|123>
|124>
|125>                          ****END OF INPUT****

CARTESIAN COORDINATES (ANGSTROEM)
---------------------------------
  Mo     0.000000    0.000000    0.000000

 Total Charge           Charge          ....    0
 Multiplicity           Mult            ....    5
 Number of Electrons    NEL             ....   14
 Basis Dimension        Dim             ....   33

ORBITAL ENERGIES
----------------

  NO   OCC          E(Eh)            E(eV)
   0   2.0000      -3.060070       -83.2687
   1   2.0000      -1.903237       -51.7897
   2   2.0000      -1.902700       -51.7751
   3   2.0000      -1.901244       -51.7355
   4   2.0000      -0.367680       -10.0051
   5   0.8000      -0.404911       -11.0182
   6   0.8000      -0.402386       -10.9495
   7   0.8000      -0.401239       -10.9183
   8   0.8000      -0.302603        -8.2343
   9   0.8000      -0.167586        -4.5603
  10   0.0000      -0.023175        -0.6306
  11   0.0000      -0.022775        -0.6197
  12   0.0000      -0.045791        -1.2460
  13   0.0000       0.097331         2.6485
  14   0.0000       0.136733         3.7207

CleanUpVectors: The p-vectors have cracked symmetry
CleanUpVectors: The p-vectors have cracked symmetry
CleanUpVectors: The p-vectors have cracked symmetry
CleanUpVectors: The d-vectors have cracked symmetry at i=4
--------------------------
ATOM BASIS FOR ELEMENT Mo
--------------------------
 NewGTO Mo
 S 7
    1         14.000000000000        -0.287433711882
    2         12.500000000000         0.423689107801
    3          4.092150180300        -0.621656882999
    4          0.970536025900         0.839746874708
    5          0.442176201700         0.451257061016
    6          0.092915024300         0.013564553280
    7          0.035016314400        -0.003204465693
 P 19
    1          8.893111791500        -0.066306528724
    2          5.468911227000         0.223064721733
    3          1.354847300700        -0.438751558509
    4          0.654948674600        -0.462479097155
    5          8.893111791500         0.025216525203
    6          5.468911227000        -0.084832026133
    7          1.354847300700         0.166858225667
    8          0.654948674600         0.175881863125
    9          8.893111791500        -0.009590830947
   10          5.468911227000         0.032264937971
   11          1.354847300700        -0.063462710330
   12          0.654948674600        -0.066894752639
   13          0.304281974700        -0.159076385591
   14          0.304281974700         0.060497114895
   15          0.304281974700        -0.023009419302
   16          0.100000000000        -0.008138710274
   17          0.100000000000         0.003095170215
   18          0.100000000000        -0.001177214309
   19          0.033000000000         0.000456863112
 D 19
    1         14.000000000000        -0.000000778207
    2         12.500000000000         0.000001284762
    3          4.092150180300        -0.000006419289
    4          0.970536025900         0.000017016194
    5          0.442176201700         0.000418092574
    6          0.092915024300        -0.003021481556
    7          0.035016314400        -0.007491273607
    8          5.004444549700        -0.014972413404
    9          1.773682332400         0.145363745994
   10          0.769505917000         0.303305579975
   11          5.004444549700         0.006413080659
   12          1.773682332400        -0.062263137066
   13          0.769505917000        -0.129913801889
   14          5.004444549700        -0.005103780317
   15          1.773682332400         0.049551438740
   16          0.769505917000         0.103390482701
   17          5.004444549700        -0.011479652683
   18          1.773682332400         0.111453328983
   19          0.769505917000         0.232550532845
 P 19
    1          8.893111791500        -0.007540955027
    2          5.468911227000         0.025368859857
    3          1.354847300700        -0.049898642481
    4          0.654948674600        -0.052597144503
    5          8.893111791500        -0.019801720983
    6          5.468911227000         0.066615844108
    7          1.354847300700        -0.131028363413
    8          0.654948674600        -0.138114333813
    9          8.893111791500         0.000071313401
   10          5.468911227000        -0.000239908562
   11          1.354847300700         0.000471882128
   12          0.654948674600         0.000497401357
   13          0.304281974700        -0.019539249723
   14          0.304281974700        -0.051307927155
   15          0.304281974700         0.000184779030
   16          0.100000000000         0.205434445265
   17          0.100000000000         0.539448325916
   18          0.100000000000        -0.001942755122
   19          0.033000000000         0.198353896451
 end
-------------------------------------------
RADIAL EXPECTATION VALUES <R**-3> TO <R**3>
-------------------------------------------
   0 :     0.000000     1.052549     0.975377     1.131873     1.413066     1.944056
   1 :     0.986427     0.882524     0.887970     1.258822     1.770831     2.783179
   2 :     0.986241     0.882387     0.887886     1.258998     1.771434     2.784924
   3 :     0.991075     0.885952     0.890058     1.254547     1.756374     2.742192
   4 :     0.467682     0.500623     0.645260     1.865864     4.184337    55.915077
   5 :     0.000000     0.158329     0.338700     3.463517    13.864405    62.551565
   6 :     0.462476     0.496785     0.641894     1.883905     4.293175    56.257812
   7 :     0.464784     0.498237     0.643496     1.872227     4.214840    56.546704
   8 :     0.464450     0.497945     0.643264     1.873211     4.219953    56.660400
   9 :     0.054490     0.093038     0.262112     4.554151    23.734986   139.431079
  10 :     0.022560     0.051338     0.198941     5.789245    37.133568   259.237837
  11 :     0.022517     0.051262     0.198801     5.792501    37.170393   259.577391
  12 :     0.332732     0.380421     0.547201     2.313532     6.601894   111.639080
  13 :     0.000039     0.085904     0.229920     5.655319    36.593756   255.994335
  14 :     0.042751     0.071115     0.214379     6.086509    43.267577   337.120142
  15 :     0.070410     0.108470     0.273331     4.876663    29.987794   217.500268
  16 :     0.070498     0.108567     0.273469     4.873731    29.954334   217.189434
  17 :     0.115014     0.152362     0.320672     3.866499    16.564391   376.193596
  18 :     0.112798     0.150687     0.319423     3.874119    16.618672   377.817195
  19 :     0.112964     0.150848     0.319563     3.873492    16.615550   377.753525
  20 :     0.113868     0.151912     0.320491     3.867653    16.577568   376.390305
  21 :     0.205916     0.239259     0.396594     3.482905    14.436496   326.502067
  22 :     0.425046     0.408582     0.538177     2.673023    10.282898    54.869887
  23 :     0.425188     0.408698     0.538264     2.672523    10.278929    54.839422
  24 :     0.416127     0.400808     0.531871     2.702547    10.416153    55.097758
  25 :     0.638854     0.563880     0.637464     2.225587     6.629294   122.300904
  26 :     0.644158     0.567926     0.640471     2.211585     6.544140   120.070085
  27 :     0.560367     0.575551     0.643687     2.215103     6.671252   109.643327
  28 :     0.644325     0.568056     0.640563     2.211228     6.542148   120.020059
  29 :     0.082979     0.631066     0.670513     2.202007     7.254269    46.593386
  30 :     0.683092     0.597170     0.659595     2.161495     6.339261   116.292836
  31 :     0.000000     4.831476     1.950873     0.664987     0.790259     2.326892
  32 :     0.000000    49.233133     5.591635     0.251502     0.122369     0.238824
Making the total density                ... o.k.
o.k.
Initializing the integrals              ... done
Making exponents                        ... done
Making rho(0)                           ... done (         0.000250842)
Integral calculation                    ... Two index integrals                     ... done
Solving the equation system             ... done
atomic density will be written to file MsrP-4S-opt7_atom42.adf

FINAL SINGLE POINT ENERGY       -67.358252440052

DIPOLE MOMENT
-------------
                                X             Y             Z
Electronic contribution:      0.00000      -0.00000       0.00000
Nuclear contribution   :      0.00000       0.00000       0.00000
                        -----------------------------------------
Total Dipole Moment    :      0.00000      -0.00000       0.00000
                        -----------------------------------------
Magnitude (a.u.)       :      0.00000
Magnitude (Debye)      :      0.00000

                             ****ORCA TERMINATED NORMALLY****
TOTAL RUN TIME: 0 days 0 hours 0 minutes 1 seconds 106 msec
