                         Program Version 4.2.1 -  RELEASE  -
|  1> # shortYedY-4S opt  RIJCOSX def2/J GRID4 NOFINALGRID D3BJ
|  2> # By default, def2-SVP/TZVP/TZVPP use def2-ECP, no need to write
|  3>
|  4> !UKS opt B3LYP/G def2-TZVP def2/JK RIJK Conv
|  5> !TightSCF DIRECT xyzfile
|  6>
|  7> %pal nprocs 8
|  8> end
|  9>
| 10> %method SPECIALGRIDATOMS 42
| 11>         SPECIALGRIDINTACC 7
| 12>         end
| 13>
| 14> %basis newGTO Mo "def2-TZVPP" end
| 15>        newGTO S "def2-TZVPP" end
| 16> end
| 17>
| 18> %maxcore 4000
| 19>
| 20> * xyz -1 2
| 21> 42      -0.970000000      2.230000000     -1.000000000
| 22> 8       -0.985840798      2.206892176      0.687170551
| 23> 16      -2.515638044      0.570968733     -1.844275698
| 24> 16      -2.701928158      3.708428889     -1.809500318
| 25> 6       -4.037981396      1.388564575     -2.225276167
| 26> 6       -4.123458384      2.728582635     -2.195594702
| 27> 6        1.460320735      6.884183079     -2.749476494
| 28> 6        1.081222322      6.671259776     -1.304209353
| 29> 8        1.320642789      7.930927365     -3.339571955
| 30> 7        0.676817864      7.930151408     -0.690231635
| 31> 1        1.990088634      6.286156917     -0.817729165
| 32> 6        0.011554564      5.560371309     -1.189528533
| 33> 1        0.430556147      8.591857986     -1.419472990
| 34> 1       -0.302861506      5.511280008     -0.145695908
| 35> 1       -0.860814907      5.822713169     -1.790494890
| 36> 16       0.646772471      3.913066998     -1.696452916
| 37> 1       -0.129121114      7.796220443     -0.093555495
| 38> 6       -5.152990311      0.439626180     -2.577286879
| 39> 1       -6.062029760      0.957772816     -2.882953967
| 40> 1       -4.850422261     -0.221499233     -3.394826475
| 41> 1       -5.400708829     -0.204285519     -1.727708840
| 42> 6       -5.348184791      3.548649244     -2.502562222
| 43> 1       -5.657091339      4.130169885     -1.628381335
| 44> 1       -5.141920279      4.266682767     -3.301968395
| 45> 1       -6.193261150      2.933965548     -2.812093263
| 46> 1        1.878787382      5.996377209     -3.254135332
| 47> 16       0.622813274      0.590220156     -1.795903425
| 48> 6        2.136542470      0.892472165     -0.807663085
| 49> 1        2.871878848      0.138073920     -1.091595889
| 50> 1        2.535250636      1.885576524     -1.008401105
| 51> 1        1.923995943      0.802782701      0.257220554
| 52> *
| 53>
| 54>
| 55>
| 56>
| 57>
| 58>                          ****END OF INPUT****
 Total Charge           Charge          ....   -1
 Multiplicity           Mult            ....    2
 Number of Electrons    NEL             ....  165
FINAL SINGLE POINT ENERGY     -2180.664622946457
FINAL SINGLE POINT ENERGY     -2180.664620789205
FINAL SINGLE POINT ENERGY     -2180.664604884034
FINAL SINGLE POINT ENERGY     -2180.664622769134
FINAL SINGLE POINT ENERGY     -2180.664616033114
FINAL SINGLE POINT ENERGY     -2180.664626629784
FINAL SINGLE POINT ENERGY     -2180.664623876778
                    ***********************HURRAY********************

CARTESIAN COORDINATES (ANGSTROEM)
---------------------------------
  Mo    -0.973816    2.234861   -1.018174
  O     -0.987164    2.221352    0.665527
  S     -2.517314    0.567819   -1.849300
  S     -2.707978    3.706262   -1.836234
  C     -4.044830    1.380782   -2.222630
  C     -4.132150    2.720925   -2.201699
  C      1.508451    6.894912   -2.722560
  C      1.084955    6.667883   -1.292152
  O      1.402177    7.952066   -3.301211
  N      0.676631    7.922653   -0.672449
  H      1.974798    6.266203   -0.784797
  C      0.001867    5.566461   -1.222183
  H      0.471936    8.601900   -1.398664
  H     -0.344608    5.509695   -0.189437
  H     -0.849635    5.843373   -1.846511
  S      0.638223    3.918882   -1.726885
  H     -0.154717    7.792653   -0.110879
  C     -5.161776    0.427273   -2.555770
  H     -6.075078    0.941084   -2.855869
  H     -4.866955   -0.239854   -3.371303
  H     -5.399354   -0.210842   -1.698782
  C     -5.361375    3.536774   -2.501007
  H     -5.662429    4.123369   -1.627281
  H     -5.165143    4.250126   -3.306986
  H     -6.208777    2.918362   -2.797174
  H      1.927105    6.007790   -3.227827
  S      0.624877    0.596006   -1.807422
  C      2.133978    0.904019   -0.813768
  H      2.878399    0.161795   -1.106318
  H      2.521292    1.904117   -1.002265
  H      1.921400    0.799508    0.249854

 Multiplicity           Mult            ....    2
 Number of Electrons    NEL             ....  165
 Basis Dimension        Dim             ....  655

ORBITAL ENERGIES
----------------
                 SPIN UP ORBITALS
  NO   OCC          E(Eh)            E(eV)
   0   1.0000     -88.710415     -2413.9331
   1   1.0000     -88.709059     -2413.8962
   2   1.0000     -88.709009     -2413.8949
   3   1.0000     -88.707340     -2413.8495
   4   1.0000     -19.043576      -518.2020
   5   1.0000     -19.014917      -517.4222
   6   1.0000     -14.208839      -386.6422
   7   1.0000     -10.171075      -276.7690
   8   1.0000     -10.119668      -275.3702
   9   1.0000     -10.096005      -274.7263
  10   1.0000     -10.078223      -274.2424
  11   1.0000     -10.076790      -274.2034
  12   1.0000     -10.076611      -274.1985
  13   1.0000     -10.070482      -274.0317
  14   1.0000     -10.069558      -274.0066
  15   1.0000      -7.787251      -211.9019
  16   1.0000      -7.786589      -211.8839
  17   1.0000      -7.786365      -211.8778
  18   1.0000      -7.784628      -211.8305
  19   1.0000      -5.749913      -156.4631
  20   1.0000      -5.749405      -156.4493
  21   1.0000      -5.749039      -156.4393
  22   1.0000      -5.747116      -156.3870
  23   1.0000      -5.745062      -156.3311
  24   1.0000      -5.744722      -156.3218
  25   1.0000      -5.744635      -156.3195
  26   1.0000      -5.744506      -156.3160
  27   1.0000      -5.743219      -156.2809
  28   1.0000      -5.742530      -156.2622
  29   1.0000      -5.742360      -156.2576
  30   1.0000      -5.741404      -156.2316
  31   1.0000      -2.508048       -68.2475
  32   1.0000      -1.523542       -41.4577
  33   1.0000      -1.504196       -40.9313
  34   1.0000      -1.503325       -40.9076
  35   1.0000      -0.968489       -26.3539
  36   1.0000      -0.804760       -21.8986
  37   1.0000      -0.777133       -21.1469
  38   1.0000      -0.717979       -19.5372
  39   1.0000      -0.676403       -18.4059
  40   1.0000      -0.642484       -17.4829
  41   1.0000      -0.640991       -17.4422
  42   1.0000      -0.596575       -16.2336
  43   1.0000      -0.591885       -16.1060
  44   1.0000      -0.556831       -15.1522
  45   1.0000      -0.515233       -14.0202
  46   1.0000      -0.508870       -13.8470
  47   1.0000      -0.496793       -13.5184
  48   1.0000      -0.469406       -12.7732
  49   1.0000      -0.428583       -11.6623
  50   1.0000      -0.379043       -10.3143
  51   1.0000      -0.375267       -10.2115
  52   1.0000      -0.362605        -9.8670
  53   1.0000      -0.354907        -9.6575
  54   1.0000      -0.342376        -9.3165
  55   1.0000      -0.326997        -8.8980
  56   1.0000      -0.323723        -8.8090
  57   1.0000      -0.317886        -8.6501
  58   1.0000      -0.317289        -8.6339
  59   1.0000      -0.311536        -8.4773
  60   1.0000      -0.308702        -8.4002
  61   1.0000      -0.297965        -8.1080
  62   1.0000      -0.288794        -7.8585
  63   1.0000      -0.281738        -7.6665
  64   1.0000      -0.265714        -7.2304
  65   1.0000      -0.262857        -7.1527
  66   1.0000      -0.256779        -6.9873
  67   1.0000      -0.252547        -6.8722
  68   1.0000      -0.239452        -6.5158
  69   1.0000      -0.226579        -6.1655
  70   1.0000      -0.214033        -5.8241
  71   1.0000      -0.196354        -5.3431
  72   1.0000      -0.187497        -5.1021
  73   1.0000      -0.176822        -4.8116
  74   1.0000      -0.169843        -4.6217
  75   1.0000      -0.159969        -4.3530
  76   1.0000      -0.147686        -4.0187
  77   1.0000      -0.135361        -3.6834
  78   1.0000      -0.131218        -3.5706
  79   1.0000      -0.125200        -3.4069
  80   1.0000      -0.116987        -3.1834
  81   1.0000      -0.083058        -2.2601
  82   1.0000      -0.075669        -2.0591
  83   0.0000       0.054425         1.4810
  84   0.0000       0.068308         1.8588
  85   0.0000       0.071665         1.9501
  86   0.0000       0.101774         2.7694
  87   0.0000       0.103713         2.8222

                 SPIN DOWN ORBITALS
  NO   OCC          E(Eh)            E(eV)
   0   1.0000     -88.709709     -2413.9139
   1   1.0000     -88.709033     -2413.8955
   2   1.0000     -88.708910     -2413.8922
   3   1.0000     -88.707431     -2413.8519
   4   1.0000     -19.043578      -518.2021
   5   1.0000     -19.016347      -517.4611
   6   1.0000     -14.208817      -386.6416
   7   1.0000     -10.171077      -276.7691
   8   1.0000     -10.119684      -275.3706
   9   1.0000     -10.095714      -274.7183
  10   1.0000     -10.077920      -274.2341
  11   1.0000     -10.076624      -274.1989
  12   1.0000     -10.076404      -274.1929
  13   1.0000     -10.070505      -274.0324
  14   1.0000     -10.069577      -274.0071
  15   1.0000      -7.786597      -211.8841
  16   1.0000      -7.786591      -211.8839
  17   1.0000      -7.786221      -211.8738
  18   1.0000      -7.784701      -211.8325
  19   1.0000      -5.749531      -156.4527
  20   1.0000      -5.749386      -156.4488
  21   1.0000      -5.749125      -156.4416
  22   1.0000      -5.747231      -156.3901
  23   1.0000      -5.744888      -156.3264
  24   1.0000      -5.744635      -156.3195
  25   1.0000      -5.744477      -156.3152
  26   1.0000      -5.743281      -156.2826
  27   1.0000      -5.742742      -156.2679
  28   1.0000      -5.742097      -156.2504
  29   1.0000      -5.741876      -156.2444
  30   1.0000      -5.741431      -156.2323
  31   1.0000      -2.483789       -67.5873
  32   1.0000      -1.514349       -41.2075
  33   1.0000      -1.466767       -39.9128
  34   1.0000      -1.466631       -39.9091
  35   1.0000      -0.968493       -26.3540
  36   1.0000      -0.804707       -21.8972
  37   1.0000      -0.779737       -21.2177
  38   1.0000      -0.717609       -19.5271
  39   1.0000      -0.675873       -18.3914
  40   1.0000      -0.642285       -17.4775
  41   1.0000      -0.638791       -17.3824
  42   1.0000      -0.596300       -16.2262
  43   1.0000      -0.591545       -16.0967
  44   1.0000      -0.556675       -15.1479
  45   1.0000      -0.514446       -13.9988
  46   1.0000      -0.508034       -13.8243
  47   1.0000      -0.494253       -13.4493
  48   1.0000      -0.469197       -12.7675
  49   1.0000      -0.428499       -11.6600
  50   1.0000      -0.378971       -10.3123
  51   1.0000      -0.374620       -10.1939
  52   1.0000      -0.362334        -9.8596
  53   1.0000      -0.354387        -9.6434
  54   1.0000      -0.342247        -9.3130
  55   1.0000      -0.326948        -8.8967
  56   1.0000      -0.323147        -8.7933
  57   1.0000      -0.317456        -8.6384
  58   1.0000      -0.316685        -8.6174
  59   1.0000      -0.310054        -8.4370
  60   1.0000      -0.308706        -8.4003
  61   1.0000      -0.297578        -8.0975
  62   1.0000      -0.288744        -7.8571
  63   1.0000      -0.281319        -7.6551
  64   1.0000      -0.262352        -7.1390
  65   1.0000      -0.260659        -7.0929
  66   1.0000      -0.254369        -6.9217
  67   1.0000      -0.250745        -6.8231
  68   1.0000      -0.237569        -6.4646
  69   1.0000      -0.225869        -6.1462
  70   1.0000      -0.212501        -5.7824
  71   1.0000      -0.195211        -5.3120
  72   1.0000      -0.186563        -5.0766
  73   1.0000      -0.172289        -4.6882
  74   1.0000      -0.167605        -4.5608
  75   1.0000      -0.159165        -4.3311
  76   1.0000      -0.142122        -3.8673
  77   1.0000      -0.132495        -3.6054
  78   1.0000      -0.125224        -3.4075
  79   1.0000      -0.114943        -3.1278
  80   1.0000      -0.108429        -2.9505
  81   1.0000      -0.076525        -2.0824
  82   0.0000       0.012172         0.3312
  83   0.0000       0.054584         1.4853
  84   0.0000       0.077466         2.1080
  85   0.0000       0.081207         2.2098
  86   0.0000       0.107089         2.9140

MULLIKEN ATOMIC CHARGES AND SPIN POPULATIONS
--------------------------------------------
   0 Mo:    0.719182    0.897419
   1 O :   -0.557878   -0.051497
   2 S :   -0.293535   -0.012854
   3 S :   -0.324560   -0.002273
   4 C :    0.077404    0.005610
   5 C :    0.089598    0.013117
   6 C :    0.104248   -0.000608
   7 C :    0.131888    0.000035
   8 O :   -0.318684   -0.000083
   9 N :   -0.525408    0.000987
  10 H :    0.063379    0.001224
  11 C :   -0.192750    0.011754
  12 H :    0.218282   -0.000066
  13 H :    0.113656   -0.001249
  14 H :    0.118568    0.000955
  15 S :   -0.342020    0.018937
  16 H :    0.203946   -0.000019
  17 C :   -0.342205   -0.000454
  18 H :    0.072158    0.000024
  19 H :    0.105195    0.000316
  20 H :    0.104964   -0.000070
  21 C :   -0.346279    0.000994
  22 H :    0.103747   -0.000034
  23 H :    0.104764    0.000551
  24 H :    0.077024   -0.000291
  25 H :    0.092686    0.000228
  26 S :   -0.296963    0.104295
  27 C :   -0.304122    0.007208
  28 H :    0.097380    0.000915
  29 H :    0.121007    0.002363
  30 H :    0.125327    0.002567
Sum of atomic charges         :   -1.0000000

LOEWDIN ATOMIC CHARGES AND SPIN POPULATIONS
-------------------------------------------
   0 Mo:   -0.758241    0.816163
   1 O :   -0.121883   -0.043457
   2 S :    0.391192    0.004657
   3 S :    0.388314    0.021140
   4 C :   -0.465130    0.004577
   5 C :   -0.464911    0.009149
   6 C :   -0.270404   -0.000127
   7 C :   -0.366255    0.000020
   8 O :    0.084709   -0.000072
   9 N :   -0.145695    0.000929
  10 H :    0.150682    0.000358
  11 C :   -0.461507    0.011086
  12 H :    0.149243    0.000001
  13 H :    0.126396    0.000272
  14 H :    0.120218    0.000697
  15 S :    0.275582    0.039682
  16 H :    0.144955    0.000008
  17 C :   -0.306100   -0.000170
  18 H :    0.110617    0.000035
  19 H :    0.119092    0.000085
  20 H :    0.118805   -0.000051
  21 C :   -0.306101    0.000147
  22 H :    0.118363   -0.000026
  23 H :    0.118535    0.000223
  24 H :    0.111303   -0.000129
  25 H :    0.116425   -0.000034
  26 S :    0.266455    0.114954
  27 C :   -0.541639    0.014914
  28 H :    0.095231    0.000710
  29 H :    0.097599    0.001732
  30 H :    0.104150    0.002528

  Mayer bond orders larger than 0.100000
B(  0-Mo,  1-O ) :   1.9375 B(  0-Mo,  2-S ) :   1.0057 B(  0-Mo,  3-S ) :   0.9993
B(  0-Mo, 15-S ) :   0.9663 B(  0-Mo, 26-S ) :   1.0748 B(  2-S ,  4-C ) :   1.0216
B(  3-S ,  5-C ) :   1.0311 B(  4-C ,  5-C ) :   1.7724 B(  4-C , 17-C ) :   0.9125
B(  5-C , 21-C ) :   0.9083 B(  6-C ,  7-C ) :   0.9433 B(  6-C ,  8-O ) :   2.0449
B(  6-C , 25-H ) :   0.9555 B(  7-C ,  9-N ) :   1.0509 B(  7-C , 10-H ) :   0.9334
B(  7-C , 11-C ) :   0.9363 B(  9-N , 12-H ) :   0.9107 B(  9-N , 16-H ) :   0.9420
B( 11-C , 13-H ) :   0.9693 B( 11-C , 14-H ) :   0.9380 B( 11-C , 15-S ) :   1.0054
B( 17-C , 18-H ) :   0.9808 B( 17-C , 19-H ) :   0.9698 B( 17-C , 20-H ) :   0.9670
B( 21-C , 22-H ) :   0.9672 B( 21-C , 23-H ) :   0.9677 B( 21-C , 24-H ) :   0.9819
B( 26-S , 27-C ) :   1.0108 B( 27-C , 28-H ) :   0.9573 B( 27-C , 29-H ) :   0.9565
B( 27-C , 30-H ) :   0.9634

FINAL SINGLE POINT ENERGY     -2180.664626013588

DIPOLE MOMENT
-------------
                                X             Y             Z
Electronic contribution:     10.41919     -60.53347      36.18636
Nuclear contribution   :    -11.00527      60.71837     -35.95101
                        -----------------------------------------
Total Dipole Moment    :     -0.58608       0.18491       0.23535
                        -----------------------------------------
Magnitude (a.u.)       :      0.65808
Magnitude (Debye)      :      1.67271

Rotational constants in cm-1:     0.012868     0.006316     0.004738
Rotational constants in MHz :   385.776620   189.357315   142.049266

                             ****ORCA TERMINATED NORMALLY****
TOTAL RUN TIME: 0 days 1 hours 18 minutes 58 seconds 350 msec
