 Gaussian 16, Revision C.01,
 Gaussian 16:  ES64L-G16RevC.01  3-Jul-2019

 ---------------------
 #n B3LYP/6-31G(d) Opt
 ---------------------

 ---------------
 Acetyl-Chloride
 ---------------
 Symbolic Z-matrix:
 Charge =  0 Multiplicity = 1

 SCF Done:  E(RB3LYP) =  -612.986490290     A.U. after   27 cycles
 SCF Done:  E(RB3LYP) =  -613.026312280     A.U. after   22 cycles
 SCF Done:  E(RB3LYP) =  -613.103853782     A.U. after   20 cycles
 SCF Done:  E(RB3LYP) =  -613.247138515     A.U. after   18 cycles
 SCF Done:  E(RB3LYP) =  -613.224827211     A.U. after   17 cycles
 SCF Done:  E(RB3LYP) =  -613.288250991     A.U. after   16 cycles
 SCF Done:  E(RB3LYP) =  -613.312514417     A.U. after   16 cycles
 SCF Done:  E(RB3LYP) =  -613.356734281     A.U. after   14 cycles
 SCF Done:  E(RB3LYP) =  -613.408766508     A.U. after   15 cycles
 SCF Done:  E(RB3LYP) =  -613.421264452     A.U. after   14 cycles
 SCF Done:  E(RB3LYP) =  -613.444258354     A.U. after    8 cycles
 SCF Done:  E(RB3LYP) =  -613.444922187     A.U. after   13 cycles
 SCF Done:  E(RB3LYP) =  -613.430379041     A.U. after   13 cycles
 SCF Done:  E(RB3LYP) =  -613.445638393     A.U. after   12 cycles
 SCF Done:  E(RB3LYP) =  -613.445799377     A.U. after   12 cycles
 SCF Done:  E(RB3LYP) =  -613.445875591     A.U. after   11 cycles
 SCF Done:  E(RB3LYP) =  -613.445899256     A.U. after   11 cycles
 SCF Done:  E(RB3LYP) =  -613.445911716     A.U. after    9 cycles
 SCF Done:  E(RB3LYP) =  -613.445916012     A.U. after    9 cycles
 SCF Done:  E(RB3LYP) =  -613.445916426     A.U. after    7 cycles
 Optimization completed.
    -- Stationary point found.

                         Standard orientation:
 ---------------------------------------------------------------------
 Center     Atomic      Atomic             Coordinates (Angstroms)
 Number     Number       Type             X           Y           Z
 ---------------------------------------------------------------------
      1          6           0        0.486648   -0.241808    0.000006
      2          6           0        1.320132    1.009527    0.000005
      3          1           0        2.376959    0.734329    0.000245
      4          1           0        1.082878    1.611411    0.882585
      5          1           0        1.083255    1.611139   -0.882873
      6          8           0        0.857583   -1.369457   -0.000002
      7         17           0       -1.308496    0.140733   -0.000001
 ---------------------------------------------------------------------

 The electronic state is 1-A.
 Alpha  occ. eigenvalues -- -101.54461 -19.19252 -10.34960 -10.22744  -9.46239
 Alpha  occ. eigenvalues --   -7.22526  -7.21746  -7.21625  -1.10122  -0.84785
 Alpha  occ. eigenvalues --   -0.76948  -0.56662  -0.49640  -0.48118  -0.47779
 Alpha  occ. eigenvalues --   -0.42503  -0.40602  -0.32368  -0.32071  -0.30018
 Alpha virt. eigenvalues --   -0.04162   0.01461   0.09424   0.13328   0.14588
 Alpha virt. eigenvalues --    0.22171   0.26481   0.37439   0.42014   0.45260
 Alpha virt. eigenvalues --    0.45271   0.51426   0.52136   0.58260   0.64755

 Mulliken charges:
               1
     1  C    0.317951
     2  C   -0.507077
     3  H    0.196696
     4  H    0.205242
     5  H    0.205247
     6  O   -0.328933
     7  Cl  -0.089127
 Sum of Mulliken charges =   0.00000

 Dipole moment (field-independent basis, Debye):
    X=              1.7052    Y=              2.3311    Z=             -0.0000  Tot=              2.8882
 Quadrupole moment (field-independent basis, Debye-Ang):
   XX=            -29.7754   YY=            -31.6247   ZZ=            -29.1939
   XY=              2.6231   XZ=             -0.0001   YZ=             -0.0001

 Normal termination of Gaussian 16 at Tue Sep  1 18:32:18 2020.
