 Gaussian 16, Revision C.01,
 Gaussian 16:  ES64L-G16RevC.01  3-Jul-2019

 ---------------------
 #n B3LYP/6-31G(d) Opt
 ---------------------

 ---
 H2O
 ---
 Symbolic Z-matrix:
 Charge =  0 Multiplicity = 1

 SCF Done:  E(RB3LYP) =  -76.4080506149     A.U. after    8 cycles
 SCF Done:  E(RB3LYP) =  -76.4089344859     A.U. after    9 cycles
 SCF Done:  E(RB3LYP) =  -76.4089538622     A.U. after    6 cycles
 Optimization completed.
    -- Stationary point found.

                         Standard orientation:
 ---------------------------------------------------------------------
 Center     Atomic      Atomic             Coordinates (Angstroms)
 Number     Number       Type             X           Y           Z
 ---------------------------------------------------------------------
      1          8           0        0.000000   -0.000000    0.119695
      2          1           0        0.000000    0.761431   -0.478780
      3          1           0       -0.000000   -0.761431   -0.478780
 ---------------------------------------------------------------------

 The electronic state is 1-A1.
 Alpha  occ. eigenvalues --  -19.13812  -0.99797  -0.51725  -0.37220  -0.29120
 Alpha virt. eigenvalues --    0.06267   0.14821   0.77262   0.86113   0.89078
 Alpha virt. eigenvalues --    0.89511   1.06586   1.19342   1.72909   1.74631
 Alpha virt. eigenvalues --    1.77979   2.28087   2.57755   3.55205

 Mulliken charges:
               1
     1  O   -0.774404
     2  H    0.387202
     3  H    0.387202
 Sum of Mulliken charges =  -0.00000

 Dipole moment (field-independent basis, Debye):
    X=             -0.0000    Y=             -0.0000    Z=             -2.0951  Tot=              2.0951
 Quadrupole moment (field-independent basis, Debye-Ang):
   XX=             -7.2034   YY=             -4.2862   ZZ=             -5.9900
   XY=              0.0000   XZ=              0.0000   YZ=              0.0000

 Normal termination of Gaussian 16 at Tue Sep  1 18:09:18 2020.
